# vtk DataFile Version 3.0
File created by libpointmatcher
ASCII
DATASET POLYDATA
POINTS 222 float
  897.036   48.8784    82.204
  897.026   38.1198   72.1687
  897.002   32.1179   51.1897
  901.347   32.5654   57.1527
  902.978   32.5595   55.5227
  904.024   32.5525   53.4686
  904.382    32.545   51.1914
  904.019   32.5378    48.914
  902.969   32.5317   46.8595
  901.334   32.5271   45.2288
  899.275   32.5246   44.1816
  896.994   32.5244   43.8204
  894.714   32.5264   44.1806
  892.657   32.5307   45.2269
  891.026   32.5366    46.857
   889.98   32.5436    48.911
  889.621   32.5511   51.1882
  889.985   32.5583   53.4656
  891.036   32.5644   55.5202
  892.671    32.569   57.1509
   894.73   32.5715   58.1981
  918.814   1015.11   19.7756
  904.557   1195.35   110.201
  932.939   1075.17    47.392
  954.363   1015.17   45.5505
  978.033   895.205   46.6673
  974.643   955.297   80.5819
   912.84   1237.44   142.362
  920.409   1195.44   141.199
  926.846   1135.46   142.998
  933.051   1075.49   146.483
  918.967   1015.54   154.695
  897.032   895.597   158.143
  896.935   115.324 0.0863979
  923.273   235.251  -8.13255
   965.96   235.333   22.8175
  982.308   235.487   72.8846
  966.074   235.655   122.944
  923.457   235.771   153.876
  923.254   415.196  -8.10429
  896.858   655.104  -17.5404
  958.789   535.132  -12.2682
  976.911   535.199   10.9334
  980.757   535.297   41.8163
  982.276   535.396   72.9317
  978.131   535.483   99.2508
  966.042   535.564   122.991
  947.191   535.632   141.831
  923.425   535.681   153.924
   897.07   535.705   158.087
  896.896   355.212  -12.2881
  978.097   295.386   46.5731
  966.068   295.636   122.954
  897.095   295.778   158.049
  947.009   775.117   4.05526
  982.251   775.324   72.9694
  947.166    775.56   141.869
  897.234   1237.59   157.974
  900.373   1226.04   184.172
  902.177   1196.84   184.167
  901.265   1167.65   184.163
  899.521   1261.98   221.391
  901.736   1214.63   221.384
  899.267   1279.59   250.837
  899.849   1241.48   250.831
  899.903   1300.66   281.931
  898.067    1271.7   281.927
  1101.98   1236.72   165.536
  1097.73   1253.65   165.537
  1092.53   1270.32   165.539
  1044.67   1203.65   166.391
   1034.9   1248.47   163.914
  986.609   1188.39   163.944
  975.044   1241.43   158.251
  928.034   1175.47   159.501
  914.595   1237.08   150.381
  1095.57   1251.72   163.435
  1044.79   1203.01    157.49
  1034.98   1248.07   159.827
  982.857   1205.52   152.654
   932.71    1153.9   145.508
  919.161   1216.11   148.732
  1651.67   663.873   61.1162
  1651.67   682.642   61.8297
  1651.67   701.254   59.0996
  1591.69   637.767   53.0186
  1591.68   690.552   56.4306
  1531.71   640.648   54.0674
   1531.7   695.019   51.1343
  1471.72   638.927   50.2586
  1471.71   702.166   43.6291
  1411.74   639.781   48.8224
  1411.72   712.246   38.3425
  1351.75   644.153   45.7113
  1291.78   575.193   36.5842
  1291.77   651.243   39.6345
  1231.79   545.038   27.8031
  1231.79   661.222   35.3131
  1171.81   564.774   34.9226
  1171.79    674.65   28.9952
  1111.84   562.507   37.3386
  1111.82   689.304   24.0462
  1051.87   566.087   36.3658
  1051.83   709.568   15.6156
  987.241   574.997   33.9342
  1651.67   657.135   54.7099
  1651.66    694.66   55.2134
  1591.68   659.306   48.3648
  1591.68     705.4   51.5875
  1531.69   667.237   43.8574
  1471.71   616.944   38.1443
   1471.7   680.541   38.9975
  1411.72   638.834   32.4483
  1411.72   711.992   37.8695
  1351.73   656.785   29.9533
  1291.76   588.922   21.9539
  1291.75   680.641   26.6049
  1231.77   609.396   17.8798
  1231.77   710.842    25.397
  1171.78   636.892   15.8741
  1111.82   539.539   10.1743
  1111.81   667.193   16.6477
  1051.84   564.211   3.94529
  1051.83   709.065    14.679
  987.203    599.96   2.79172
  874.909   1015.12   19.7662
  851.192   955.146   17.7862
  827.866    895.19   22.8918
  884.134   1237.42   133.046
  873.534   1195.41   125.986
  860.059   1135.42   121.324
  838.631   1075.43   115.842
  839.513   1015.49   128.911
  851.334    955.55   143.325
  870.667   895.594   153.969
  892.092   1237.49    157.42
  850.838   175.342   5.39819
  822.392   175.479    44.545
  822.447   175.635   92.9405
  850.981   175.749   132.099
  865.685   475.173  -17.0602
  834.971   475.201   -12.304
    816.9   475.283   10.8898
  813.124   475.384   41.7711
  811.676   475.484   72.8859
  815.881   475.567   99.2067
  828.024   475.639   122.953
  846.917   475.692     141.8
  870.711   475.721   153.903
   870.54   355.236  -8.12494
  815.834   355.434   46.5479
  828.037   355.675   122.934
  870.489   835.091  -8.04958
  815.783   835.289   46.6233
  827.986    835.53   123.009
  895.577   1245.45   184.174
  893.678   1226.04    184.17
   891.88   1196.84   184.165
    892.8   1167.65   184.161
  893.875   1254.11   221.388
  893.162   1206.77   221.381
  894.446   1273.24   250.835
  896.821   1235.91    250.83
  894.016   1295.74   281.929
  690.698   1216.38   166.103
  692.022   1236.89   165.448
  696.272   1253.81   165.452
  701.472   1270.48   165.455
  750.971   1211.24   167.239
  760.709   1255.98    162.44
  809.344   1197.38    164.29
  820.849   1250.25   156.467
  868.231   1185.88   158.994
  691.776   1221.34   163.423
  699.757      1258   163.928
  750.838   1210.65   157.102
  760.643   1255.68   160.325
  813.062   1214.48   153.402
  863.528   1164.31   145.042
  877.069    1226.5   149.495
  142.218   670.723    61.536
  142.215    689.49   60.7837
  142.209   708.037   57.6244
  202.196    652.83   57.2955
  202.189   698.706   54.8208
  262.174   650.232   54.8757
  262.162   704.505   49.1861
  322.151   650.023   50.4604
  322.134   713.068   41.3429
  382.127    652.41   48.0343
  442.101   577.546    35.792
  442.102   658.174   43.9314
  502.083   575.516   36.4158
  502.074    666.71   37.1816
  562.063   577.213   37.7264
  562.046    678.19   32.2791
  622.042   583.318   36.9856
  622.017   692.996   25.4877
  682.015   583.987    38.143
   681.98   710.395   19.8618
  741.981   590.385    35.174
  806.601     442.7   14.6753
  806.602   602.044   30.7613
   142.21   663.965   53.5423
  142.208   701.531   55.4473
  202.184   667.575   48.2139
  202.183   713.665   51.6291
  262.159   676.854   44.3708
  322.137   627.943   36.4656
  322.134   691.609   39.6941
   382.11    651.46   32.9701
  442.093   588.654   29.9218
  442.086    670.85   31.0246
  502.062   604.548   21.1357
   502.06    696.25   27.5467
  562.036   626.594   18.7647
  622.022   545.192   15.9751
  622.012   655.491   17.4549
  681.984   561.014   9.17812
  681.981   688.645   18.1012
  741.947   588.504   5.34666
  806.586   464.653   3.07433
VERTICES 222 444
1 0
1 1
1 2
1 3
1 4
1 5
1 6
1 7
1 8
1 9
1 10
1 11
1 12
1 13
1 14
1 15
1 16
1 17
1 18
1 19
1 20
1 21
1 22
1 23
1 24
1 25
1 26
1 27
1 28
1 29
1 30
1 31
1 32
1 33
1 34
1 35
1 36
1 37
1 38
1 39
1 40
1 41
1 42
1 43
1 44
1 45
1 46
1 47
1 48
1 49
1 50
1 51
1 52
1 53
1 54
1 55
1 56
1 57
1 58
1 59
1 60
1 61
1 62
1 63
1 64
1 65
1 66
1 67
1 68
1 69
1 70
1 71
1 72
1 73
1 74
1 75
1 76
1 77
1 78
1 79
1 80
1 81
1 82
1 83
1 84
1 85
1 86
1 87
1 88
1 89
1 90
1 91
1 92
1 93
1 94
1 95
1 96
1 97
1 98
1 99
1 100
1 101
1 102
1 103
1 104
1 105
1 106
1 107
1 108
1 109
1 110
1 111
1 112
1 113
1 114
1 115
1 116
1 117
1 118
1 119
1 120
1 121
1 122
1 123
1 124
1 125
1 126
1 127
1 128
1 129
1 130
1 131
1 132
1 133
1 134
1 135
1 136
1 137
1 138
1 139
1 140
1 141
1 142
1 143
1 144
1 145
1 146
1 147
1 148
1 149
1 150
1 151
1 152
1 153
1 154
1 155
1 156
1 157
1 158
1 159
1 160
1 161
1 162
1 163
1 164
1 165
1 166
1 167
1 168
1 169
1 170
1 171
1 172
1 173
1 174
1 175
1 176
1 177
1 178
1 179
1 180
1 181
1 182
1 183
1 184
1 185
1 186
1 187
1 188
1 189
1 190
1 191
1 192
1 193
1 194
1 195
1 196
1 197
1 198
1 199
1 200
1 201
1 202
1 203
1 204
1 205
1 206
1 207
1 208
1 209
1 210
1 211
1 212
1 213
1 214
1 215
1 216
1 217
1 218
1 219
1 220
1 221
POINT_DATA 222
SCALARS empty3 float
LOOKUP_TABLE default
  0.00561788
  0.00561788
 -0.00318279
  0.00561788
  0.00561788
  0.00561788
  0.00561788
  0.00561788
  0.00561788
 -0.00318279
 -0.00318279
 -0.00318279
 -0.00318279
 -0.00318279
 -0.00318279
 -0.00318279
 -0.00318279
 -0.00318279
 -0.00318279
 -0.00318279
 -0.00318279
 -0.00869765
-0.000309885
 -0.00893124
  -0.0147057
   0.0183117
  -0.0117627
-0.000309885
 -0.00464018
 -0.00464018
 0.000402349
-4.34934e-05
 -0.00627921
  0.00561788
  0.00020949
  -0.0041586
  -0.0041586
  -0.0041586
  0.00020949
 -0.00616945
 -0.00209741
 -0.00688152
  -0.0089816
  -0.0089816
  -0.0122785
  -0.0122785
   -0.011204
 -0.00894814
 -0.00212497
 -0.00102481
    0.002135
  -0.0041586
  -0.0041586
  0.00169322
  -0.0158524
   0.0225007
   0.0258978
-0.000309885
-0.000309885
  0.00157643
  0.00191822
-0.000309885
  0.00157643
  0.00157643
-0.000162881
-0.000162881
-0.000162881
  -0.0517676
  -0.0538918
  -0.0451229
  -0.0399629
  -0.0399629
  -0.0260064
  -0.0251602
 -0.00464018
-0.000309885
  -0.0451229
  -0.0399629
  -0.0399629
  -0.0260064
 -0.00464018
 -0.00464018
   0.0450627
   0.0467627
   0.0417143
  -0.0377411
   0.0434337
  -0.0377411
  -0.0385761
  -0.0389289
   0.0359961
    -0.03132
   0.0366055
   -0.032162
  -0.0264939
   -0.032162
   -0.016024
   -0.032162
  -0.0160564
  -0.0257447
  -0.0202403
  -0.0262619
  -0.0217869
  -0.0301658
  -0.0151391
   -0.043737
    0.042755
  -0.0399922
   0.0388658
  -0.0399922
     -0.0308
   -0.035303
    -0.03132
   0.0366055
   -0.032162
  -0.0236011
   -0.032162
  -0.0215867
  -0.0328296
  -0.0197622
  -0.0184757
  -0.0238252
  -0.0178674
  -0.0301658
  -0.0179397
  0.00522648
  -0.0211047
    0.027871
 -0.00670133
 -0.00670133
  -0.0148416
   -0.023468
  0.00134107
   0.0306826
  -0.0328858
 -0.00670133
 -0.00576183
 -0.00966794
 -0.00966794
 -0.00576183
 -0.00424364
  -0.0106985
  -0.0178975
  -0.0179058
  -0.0178124
  -0.0178689
   -0.015486
  -0.0143351
 -0.00320832
  -0.0045801
  -0.0164434
  -0.0128185
 -0.00355442
   0.0192823
   0.0175493
-0.000309885
  0.00157643
  0.00157643
  0.00157643
  0.00157643
  0.00157643
  0.00157643
-0.000162881
-0.000162881
  -0.0445593
  -0.0445593
  -0.0445593
  -0.0445593
  -0.0366817
  -0.0366817
  -0.0289754
  -0.0236495
  -0.0148416
  -0.0445593
  -0.0445593
  -0.0366817
  -0.0366817
  -0.0236495
  -0.0148416
 -0.00670133
  -0.0414832
  -0.0445773
   0.0348857
  -0.0434896
   0.0398038
  -0.0413391
   0.0291819
   0.0384054
   0.0263873
  -0.0254884
  -0.0231644
  -0.0254663
  -0.0203273
  -0.0248726
  -0.0180583
  -0.0205133
  -0.0151198
  -0.0154432
  -0.0178395
   0.0180608
   -0.021657
  -0.0224347
  -0.0131987
   0.0440785
   0.0370007
  -0.0434896
   0.0322204
   0.0367726
  -0.0387749
   0.0367726
  -0.0254884
  -0.0231644
   -0.022596
  -0.0264997
   0.0223015
  -0.0243113
  -0.0137129
  -0.0148323
  -0.0191569
   -0.017953
   -0.021657
  -0.0156822
SCALARS empty4 float
LOOKUP_TABLE default
  -0.0389727
  -0.0389727
   0.0459257
  -0.0389727
  -0.0389727
  -0.0389727
  -0.0389727
  -0.0389727
  -0.0389727
   0.0459257
   0.0459257
   0.0459257
   0.0459257
   0.0459257
   0.0459257
   0.0459257
   0.0459257
   0.0459257
   0.0459257
   0.0459257
   0.0459257
   -0.267899
   -0.271384
   -0.268382
   -0.266071
   -0.197517
   -0.241348
   -0.271384
   -0.268234
   -0.268234
    -0.23175
   -0.222837
   -0.210126
  -0.0389727
  -0.0396621
  -0.0383634
  -0.0383634
  -0.0383634
  -0.0396621
  -0.0336923
  -0.0204225
  -0.0222498
  -0.0245237
  -0.0245237
  -0.0120061
  -0.0120061
 -0.00955462
 -0.00156297
 -0.00166397
 -0.00198771
  -0.0410162
  -0.0383634
  -0.0383634
  -0.0320102
      0.1372
   -0.153634
   -0.152129
   -0.271384
   -0.271384
   -0.258146
   -0.245388
   -0.271384
   -0.258146
   -0.258146
    -0.24568
    -0.24568
    -0.24568
   -0.289755
   -0.293939
   -0.287913
   -0.281223
   -0.281223
   -0.273907
   -0.275089
   -0.268234
   -0.271384
   -0.287913
   -0.281223
   -0.281223
   -0.273907
   -0.268234
   -0.268234
  -0.0889145
  -0.0932966
   -0.103616
   0.0713753
   -0.100034
   0.0713753
    0.105768
   0.0500828
   -0.104012
    0.025826
   -0.101732
   0.0184164
  0.00529554
   0.0184164
  -0.0139533
   0.0184164
  -0.0118588
   0.0209837
  -0.0113359
   0.0263161
 -0.00557916
   0.0595428
  0.00034567
   0.0801048
   -0.104252
   0.0766956
    -0.11038
   0.0766956
   0.0278732
   0.0878242
    0.025826
   -0.101732
   0.0184164
  0.00519399
   0.0184164
-0.000883531
   0.0833612
 -0.00317787
  -0.0091317
   0.0260542
  -0.0181436
   0.0595428
 -0.00580077
   -0.264912
    0.266232
    0.193201
    0.268368
    0.268368
    0.268976
    0.267367
    0.242826
    0.213767
    -0.20899
    0.268368
   0.0388115
   0.0374873
   0.0374873
   0.0388115
   0.0383096
   0.0361839
   0.0188584
   0.0193197
   0.0194337
   0.0212013
   0.0231323
   0.0225053
   0.0260847
   0.0415671
   0.0282081
   0.0299643
    0.154406
    0.159748
    0.163343
   -0.271384
   -0.258146
   -0.258146
   -0.258146
   -0.258146
   -0.258146
   -0.258146
    -0.24568
    -0.24568
    0.277051
    0.277051
    0.277051
    0.277051
    0.274167
    0.274167
    0.271398
    0.273153
    0.268976
    0.277051
    0.277051
    0.274167
    0.274167
    0.273153
    0.268976
    0.268368
   -0.116771
   -0.119786
    0.134925
   -0.103107
    0.125268
  -0.0985078
    0.134642
   0.0906391
     0.12937
  -0.0705796
   0.0015657
   -0.066068
  0.00322426
  -0.0568228
  0.00647137
  -0.0454624
  0.00714444
  -0.0565296
   0.0133456
   0.0727411
  0.00397614
   0.0293509
 -0.00176679
    0.118773
    0.126438
   -0.103107
    0.138347
    0.107268
  -0.0652611
    0.107268
  -0.0705796
   0.0015657
  -0.0781191
  -0.0192022
    0.101179
  -0.0149376
  0.00749508
  -0.0380071
  0.00201043
   -0.052052
  0.00397614
   0.0334571
SCALARS empty5 float
LOOKUP_TABLE default
-0.999224
-0.999224
  0.99894
-0.999224
-0.999224
-0.999224
-0.999224
-0.999224
-0.999224
  0.99894
  0.99894
  0.99894
  0.99894
  0.99894
  0.99894
  0.99894
  0.99894
  0.99894
  0.99894
  0.99894
  0.99894
 0.963408
 0.962471
 0.963271
 0.963841
 0.980128
 0.970367
 0.962471
 0.963343
 0.963343
 0.972775
 0.974856
 0.977654
-0.999224
-0.999213
-0.999255
-0.999255
-0.999255
-0.999213
-0.999413
 0.999789
-0.999729
-0.999659
-0.999659
-0.999853
-0.999853
-0.999892
-0.999959
-0.999996
 0.999997
-0.999156
-0.999255
-0.999255
-0.999486
-0.990417
 0.987872
 0.988021
 0.962471
 0.962471
 0.966105
 0.969423
 0.962471
 0.966105
 0.966105
 0.969351
 0.969351
 0.969351
   0.9557
 0.954304
 0.956593
  0.95881
  0.95881
 0.961404
  0.96109
 0.963343
 0.962471
 0.956593
  0.95881
  0.95881
 0.961404
 0.963343
 0.963343
 0.995019
  0.99454
 0.993742
-0.996735
 0.994036
-0.996735
-0.993642
-0.997986
 0.993924
-0.999176
 0.994138
-0.999313
-0.999635
-0.999313
-0.999774
-0.999313
-0.999801
-0.999448
-0.999731
-0.999309
-0.999747
 -0.99777
-0.999885
-0.995826
 0.993631
-0.996252
 0.993129
-0.996252
-0.999137
 -0.99551
-0.999176
 0.994138
-0.999313
-0.999708
-0.999313
-0.999767
-0.995978
  -0.9998
-0.999788
-0.999377
-0.999676
 -0.99777
-0.999822
 0.964258
-0.963678
-0.980763
-0.963293
-0.963293
-0.963033
-0.963309
-0.970069
-0.976403
 0.977365
-0.963293
  0.99923
  0.99925
  0.99925
  0.99923
 0.999257
 0.999288
 0.999662
 0.999653
 0.999652
 0.999616
 0.999612
 0.999644
 0.999655
 0.999125
 0.999467
 0.999469
-0.988001
 -0.98697
-0.986413
 0.962471
 0.966105
 0.966105
 0.966105
 0.966105
 0.966105
 0.966105
 0.969351
 0.969351
-0.959821
-0.959821
-0.959821
-0.959821
-0.960982
-0.960982
-0.962031
 -0.96168
-0.963033
-0.959821
-0.959821
-0.960982
-0.960982
 -0.96168
-0.963033
-0.963293
 0.992292
 0.991798
-0.990241
 0.993719
-0.991324
 0.994277
-0.990465
-0.995143
-0.991245
  0.99718
  0.99973
  0.99749
 0.999788
 0.998074
 0.999816
 0.998755
  0.99986
 0.998281
 0.999752
-0.997187
 0.999758
 0.999317
 0.999911
-0.991943
-0.991284
 0.993719
 -0.98986
 -0.99355
 0.997115
 -0.99355
  0.99718
  0.99973
 0.996688
 0.999464
-0.994618
 0.999593
 0.999878
 0.999167
 0.999814
 0.998483
 0.999758
 0.999317
