# vtk DataFile Version 3.0
File created by libpointmatcher
ASCII
DATASET POLYDATA
POINTS 222 float
 897.301   49.102  79.0384
 897.295  38.3708  68.9738
 897.274   32.426  47.9785
 901.619  32.8586   53.943
  903.25  32.8576   52.313
 904.296  32.8564  50.2589
 904.654  32.8552  47.9817
 904.291  32.8542  45.7043
 903.241  32.8533  43.6498
 901.606  32.8527   42.019
 899.547  32.8525  40.9716
 897.266  32.8526  40.6103
 894.986   32.853  40.9704
 892.929  32.8538  42.0166
 891.298  32.8549  43.6466
 890.252   32.856  45.7006
 889.893  32.8571  47.9778
 890.257  32.8582  50.2552
 891.308  32.8591  52.3098
 892.942  32.8597  53.9406
 895.001    32.86  54.9879
 918.811   1015.5  19.2431
 904.499  1195.49  110.158
 932.917   1075.5  47.0238
 954.359  1015.51  45.0201
 978.063  895.545  45.8114
 974.654  955.544  79.8894
 912.768   1237.5  142.434
 920.349  1195.51  141.157
 926.802  1135.53  142.793
 933.024  1075.54  146.115
 918.956  1015.57  154.163
 897.055   895.61  157.284
 897.187  115.771   -2.898
 923.492  235.727 -10.7888
 966.177  235.737  20.1637
 982.522  235.759  70.2319
 966.285  235.786  120.291
 923.666  235.807  151.221
 923.422  415.672 -10.2704
 896.958  655.597 -19.0545
 958.923  535.629 -14.1056
 977.044  535.638  9.09698
 980.888  535.652  39.9803
 982.405  535.668  71.0959
 978.259  535.681  97.4149
 966.169  535.694  121.155
 947.317  535.706  139.994
  923.55  535.715  152.085
 897.195   535.72  156.247
 897.081  355.692  -14.619
 978.295  295.728  44.0835
 966.262  295.768  120.464
 897.288  295.794  155.556
 947.075  775.565  2.87072
 982.312  775.594  71.7871
 947.224  775.633  140.685
 897.161  1237.61  158.045
 900.302  1225.98  184.212
 902.114  1196.78  184.128
  901.21  1167.59  184.044
 899.438  1261.82  221.529
 901.666  1214.47  221.393
 899.177  1279.35  251.023
  899.77  1241.24  250.913
 899.805  1300.34  282.175
 897.978  1271.38  282.091
 1101.91  1236.77  165.616
 1097.65   1253.7  165.664
 1092.45  1270.36   165.71
 1044.61  1203.68  166.378
 1034.82  1248.51  164.023
  986.55  1188.41  163.887
  974.97  1241.46  158.338
 927.978  1175.49  159.405
 914.523  1237.12  150.452
 1095.49  1251.78  163.556
 1044.73  1203.07  157.476
 1034.91  1248.12  159.935
 982.793  1205.57  152.643
 932.661  1153.96  145.354
 919.094  1216.15  148.747
 1651.77  664.364  59.6673
 1651.76  683.131  60.4319
 1651.75  701.751  57.7525
 1591.79  638.264  51.4953
 1591.77  691.039   55.051
 1531.81  641.124  52.5487
 1531.78  695.503  49.7636
 1471.82  639.398  48.7319
 1471.79  702.654  42.2746
 1411.84  640.238  47.2946
  1411.8  712.731  37.0122
 1351.85  644.601  44.1922
  1291.9  575.649   34.874
 1291.87  651.692  38.1314
 1231.92  545.502  26.0075
 1231.88  661.665  33.8339
 1171.94  565.201  33.1774
 1171.89  675.094  27.5493
 1111.97  562.911  35.5839
 1111.91  689.744  22.6369
 1051.99  566.477  34.6176
 1051.92  710.014  14.2582
 987.361  575.375  32.2067
 1651.76  657.644  53.2426
 1651.75  695.167  53.8484
 1591.77  659.815  46.9002
 1591.76    705.9  50.2484
 1531.78  667.741  42.4111
 1471.82  617.447  36.5577
 1471.79  681.041  37.5842
 1411.82  639.336  30.9181
  1411.8  712.479  36.5385
 1351.83  657.276  28.4687
 1291.88  589.419  20.2812
 1291.85  681.124  25.1819
 1231.88  609.887  16.2595
 1231.85  711.312   24.053
 1171.89  637.371  14.3254
 1111.95  540.018  8.35717
 1111.91  667.654  15.1782
 1051.96   564.69  2.19207
 1051.92  709.514  13.3203
 987.318  600.424  1.13232
 874.906  1015.51  19.2314
 851.206  955.529  17.0867
 827.897  895.553  22.0276
 884.062  1237.49  133.116
 873.474  1195.51  125.942
 860.016  1135.52  121.116
 838.606  1075.54  115.469
 839.504  1015.57  128.375
 851.341  955.591  142.626
  870.69  895.612  153.108
 892.019  1237.51  157.492
 851.072  175.761  2.57471
 822.624  175.784  41.7202
 822.677  175.808   90.116
 851.209  175.824  129.276
 865.836  475.657 -19.0662
 835.122  475.663 -14.3115
 817.049  475.677  8.88143
 813.272  475.692  39.7627
 811.822  475.708  70.8775
 816.026   475.72  97.1987
 828.168   475.73  120.945
 847.059  475.737  139.794
 870.853   475.74  151.898
 870.725  355.697 -10.4573
 816.016  355.731  44.2129
 828.214  355.767    120.6
 870.539   835.55 -9.07493
  815.83  835.584  45.5953
 828.028   835.62  121.982
 895.501  1245.39  184.267
 893.607  1225.98   184.21
 891.817  1196.78  184.126
 892.745  1167.59  184.042
 893.794  1253.95  221.505
 893.094  1206.61  221.368
 894.358     1273  251.004
 896.743  1235.67  250.897
  893.92  1295.41  282.159
 690.631  1216.31  166.105
 691.949  1236.83  165.507
 696.194  1253.75  165.557
  701.39  1270.41  165.606
 750.905  1211.19  167.231
 760.631  1255.94  162.554
 809.282  1197.35  164.247
 820.773  1250.24  156.569
 868.172  1185.89  158.923
 691.707  1221.28  163.439
 699.678  1257.94  164.044
 750.773  1210.62  157.092
 760.565  1255.65  160.439
 812.996  1214.48  153.406
 863.476  1164.35  144.912
     877  1226.53  149.535
  142.31  670.789  60.0226
 142.302  689.558  59.3214
 142.291  708.112  56.2127
 202.293  652.924  55.7367
 202.273  698.806  53.3869
 262.272  650.349  53.3131
 262.245  704.638  47.7713
 322.249  650.169  48.9005
 322.215  713.239  39.9547
 382.225   652.58  46.4843
 442.221  577.766  34.0413
 442.198  658.371  42.4004
 502.203  575.751   34.663
 502.168  666.943  35.6771
 562.183  577.462  35.9815
 562.138  678.453  30.8092
  622.16  583.586  35.2606
 622.105  693.294  24.0615
 682.132  584.268  36.4231
 682.063  710.726  18.4863
 742.097  590.691  33.4749
  806.76  443.081  12.5775
 806.715   602.38  29.0975
 142.304  664.052  52.0104
 142.291  701.612  54.0178
 202.278  667.694  46.6952
 202.264  713.774   50.236
 262.251      677  42.8807
 322.242  628.127  34.8457
 322.221  691.784  38.2476
 382.209  651.671  31.4175
  442.21   588.89  28.2015
 442.179  671.083  29.5282
 502.175  604.825   19.462
 502.146  696.509  26.1228
 562.143  626.894  17.1544
 622.152  545.517  14.1463
 622.111  655.812  15.9265
  682.11  561.374  7.39579
  682.07   688.98  16.6665
 742.065  588.891  3.64253
 806.739  465.065  1.03643
VERTICES 222 444
1 0
1 1
1 2
1 3
1 4
1 5
1 6
1 7
1 8
1 9
1 10
1 11
1 12
1 13
1 14
1 15
1 16
1 17
1 18
1 19
1 20
1 21
1 22
1 23
1 24
1 25
1 26
1 27
1 28
1 29
1 30
1 31
1 32
1 33
1 34
1 35
1 36
1 37
1 38
1 39
1 40
1 41
1 42
1 43
1 44
1 45
1 46
1 47
1 48
1 49
1 50
1 51
1 52
1 53
1 54
1 55
1 56
1 57
1 58
1 59
1 60
1 61
1 62
1 63
1 64
1 65
1 66
1 67
1 68
1 69
1 70
1 71
1 72
1 73
1 74
1 75
1 76
1 77
1 78
1 79
1 80
1 81
1 82
1 83
1 84
1 85
1 86
1 87
1 88
1 89
1 90
1 91
1 92
1 93
1 94
1 95
1 96
1 97
1 98
1 99
1 100
1 101
1 102
1 103
1 104
1 105
1 106
1 107
1 108
1 109
1 110
1 111
1 112
1 113
1 114
1 115
1 116
1 117
1 118
1 119
1 120
1 121
1 122
1 123
1 124
1 125
1 126
1 127
1 128
1 129
1 130
1 131
1 132
1 133
1 134
1 135
1 136
1 137
1 138
1 139
1 140
1 141
1 142
1 143
1 144
1 145
1 146
1 147
1 148
1 149
1 150
1 151
1 152
1 153
1 154
1 155
1 156
1 157
1 158
1 159
1 160
1 161
1 162
1 163
1 164
1 165
1 166
1 167
1 168
1 169
1 170
1 171
1 172
1 173
1 174
1 175
1 176
1 177
1 178
1 179
1 180
1 181
1 182
1 183
1 184
1 185
1 186
1 187
1 188
1 189
1 190
1 191
1 192
1 193
1 194
1 195
1 196
1 197
1 198
1 199
1 200
1 201
1 202
1 203
1 204
1 205
1 206
1 207
1 208
1 209
1 210
1 211
1 212
1 213
1 214
1 215
1 216
1 217
1 218
1 219
1 220
1 221
POINT_DATA 222
SCALARS empty3 float
LOOKUP_TABLE default
  0.00568314
  0.00568314
 -0.00324998
  0.00568314
  0.00568314
  0.00568314
  0.00568314
  0.00568314
  0.00568314
 -0.00324998
 -0.00324998
 -0.00324998
 -0.00324998
 -0.00324998
 -0.00324998
 -0.00324998
 -0.00324998
 -0.00324998
 -0.00324998
 -0.00324998
 -0.00324998
 -0.00867464
-0.000285838
 -0.00890808
  -0.0146832
    0.018314
  -0.0117476
-0.000285838
 -0.00461706
 -0.00461706
 0.000414687
-3.37757e-05
 -0.00627322
  0.00568314
  0.00027494
 -0.00409352
 -0.00409352
 -0.00409352
  0.00027494
 -0.00610567
 -0.00214598
 -0.00682095
 -0.00892039
 -0.00892039
  -0.0122208
  -0.0122208
   -0.011147
 -0.00889337
 -0.00207016
 -0.00107859
  0.00220082
 -0.00409352
 -0.00409352
  0.00175653
  -0.0158372
   0.0224902
   0.0258869
-0.000285838
-0.000285838
  0.00159655
  0.00193457
-0.000285838
  0.00159655
  0.00159655
-0.000146438
-0.000146438
-0.000146438
   -0.051738
   -0.053861
  -0.0450939
  -0.0399359
  -0.0399359
  -0.0259816
  -0.0251351
 -0.00461706
-0.000285838
  -0.0450939
  -0.0399359
  -0.0399359
  -0.0259816
 -0.00461706
 -0.00461706
   0.0450337
   0.0467349
   0.0416894
  -0.0377071
   0.0434078
  -0.0377071
  -0.0385518
  -0.0388888
   0.0359713
  -0.0312729
   0.0365801
  -0.0321129
  -0.0264411
  -0.0321129
  -0.0159658
  -0.0321129
  -0.0159988
  -0.0256963
  -0.0201828
   -0.026215
  -0.0217311
  -0.0301283
  -0.0150848
  -0.0437055
   0.0427303
  -0.0399596
   0.0388429
  -0.0399596
  -0.0307536
  -0.0352737
  -0.0312729
   0.0365801
  -0.0321129
  -0.0235482
  -0.0321129
  -0.0215322
  -0.0327989
  -0.0197069
  -0.0184188
  -0.0237782
  -0.0178079
  -0.0301283
  -0.0178838
  0.00524861
  -0.0211273
     0.02787
 -0.00672448
 -0.00672448
  -0.0148649
  -0.0234909
  0.00132547
   0.0306756
  -0.0328801
 -0.00672448
 -0.00582704
 -0.00973278
 -0.00973278
 -0.00582704
 -0.00430872
   -0.010763
  -0.0179572
  -0.0179655
  -0.0178721
  -0.0179292
  -0.0155468
  -0.0143958
 -0.00326998
 -0.00464608
  -0.0165056
  -0.0128813
 -0.00354417
    0.019291
   0.0175569
-0.000285838
  0.00159655
  0.00159655
  0.00159655
  0.00159655
  0.00159655
  0.00159655
-0.000146438
-0.000146438
  -0.0445851
  -0.0445851
  -0.0445851
  -0.0445851
  -0.0367066
  -0.0367066
  -0.0289994
  -0.0236741
  -0.0148649
  -0.0445851
  -0.0445851
  -0.0367066
  -0.0367066
  -0.0236741
  -0.0148649
 -0.00672448
  -0.0415043
  -0.0445975
   0.0349016
  -0.0435146
   0.0398224
  -0.0413654
   0.0291979
    0.038434
   0.0264048
  -0.0255228
  -0.0232192
  -0.0255019
  -0.0203825
  -0.0249108
  -0.0181145
  -0.0205548
  -0.0151761
  -0.0154815
  -0.0178976
   0.0180946
  -0.0217124
  -0.0224973
  -0.0132525
    0.044099
    0.037019
  -0.0435146
   0.0322353
   0.0367964
  -0.0388107
   0.0367964
  -0.0255228
  -0.0232192
  -0.0226282
  -0.0265486
   0.0223271
  -0.0243614
  -0.0137693
  -0.0148759
  -0.0192118
  -0.0179927
  -0.0217124
  -0.0157459
SCALARS empty4 float
LOOKUP_TABLE default
  -0.0362493
  -0.0362493
   0.0432037
  -0.0362493
  -0.0362493
  -0.0362493
  -0.0362493
  -0.0362493
  -0.0362493
   0.0432037
   0.0432037
   0.0432037
   0.0432037
   0.0432037
   0.0432037
   0.0432037
   0.0432037
   0.0432037
   0.0432037
   0.0432037
   0.0432037
   -0.270525
   -0.274004
   -0.271008
   -0.268699
   -0.200181
   -0.243993
   -0.274004
   -0.270858
   -0.270858
   -0.234399
   -0.225492
    -0.21279
  -0.0362493
  -0.0369403
  -0.0356426
  -0.0356426
  -0.0356426
  -0.0369403
  -0.0309717
  -0.0231462
  -0.0195287
  -0.0218033
  -0.0218033
 -0.00928615
 -0.00928615
 -0.00683427
  0.00115817
  0.00105919
 -0.00471175
   -0.038294
  -0.0356426
  -0.0356426
  -0.0292873
    0.139893
   -0.156318
   -0.154812
   -0.274004
   -0.274004
   -0.260776
   -0.248027
   -0.274004
   -0.260776
   -0.260776
   -0.248319
   -0.248319
   -0.248319
   -0.292372
   -0.296552
    -0.29053
   -0.283845
   -0.283845
   -0.276532
   -0.277713
   -0.270858
   -0.274004
    -0.29053
   -0.283845
   -0.283845
   -0.276532
   -0.270858
   -0.270858
  -0.0916117
   -0.095992
   -0.106311
   0.0740792
   -0.102729
   0.0740792
    0.108463
     0.05279
   -0.106709
   0.0285386
   -0.104429
   0.0211292
  0.00801084
   0.0211292
  -0.0112346
   0.0211292
 -0.00914008
   0.0236987
 -0.00861847
   0.0290305
 -0.00286219
   0.0622518
  0.00306486
   0.0828046
   -0.106946
   0.0793976
   -0.113073
   0.0793976
   0.0305858
   0.0905255
   0.0285386
   -0.104429
   0.0211292
   0.0079103
   0.0211292
  0.00183353
   0.0860644
-0.000460194
 -0.00641367
   0.0287695
  -0.0154257
   0.0622518
 -0.00308252
   -0.267536
     0.26885
    0.195879
    0.270989
    0.270989
    0.271594
    0.269984
    0.245468
    0.216434
   -0.211661
    0.270989
   0.0360881
   0.0347627
   0.0347627
   0.0360881
   0.0355865
   0.0334589
   0.0161305
   0.0165918
   0.0167059
   0.0184735
   0.0204052
   0.0197784
   0.0233609
   0.0388443
   0.0254811
   0.0272383
    0.157096
    0.162441
    0.166034
   -0.274004
   -0.260776
   -0.260776
   -0.260776
   -0.260776
   -0.260776
   -0.260776
   -0.248319
   -0.248319
    0.279652
    0.279652
    0.279652
    0.279652
    0.276773
    0.276773
    0.274009
    0.275765
    0.271594
    0.279652
    0.279652
    0.276773
    0.276773
    0.275765
    0.271594
    0.270989
   -0.119485
   -0.122499
    0.137632
   -0.105825
    0.127979
   -0.101227
    0.137348
   0.0933601
    0.132077
  -0.0733026
 -0.00116385
  -0.0687918
 0.000495345
  -0.0595481
  0.00374301
  -0.0481884
  0.00441678
  -0.0592528
   0.0106175
    0.075462
  0.00124693
   0.0266226
 -0.00449402
    0.121486
    0.129148
   -0.105825
    0.141052
    0.109984
  -0.0679877
    0.109984
  -0.0733026
 -0.00116385
  -0.0808399
  -0.0219319
    0.103894
   -0.017667
  0.00476776
  -0.0407326
-0.000718218
  -0.0547765
  0.00124693
   0.0307307
SCALARS empty5 float
LOOKUP_TABLE default
-0.999327
-0.999327
 0.999061
-0.999327
-0.999327
-0.999327
-0.999327
-0.999327
-0.999327
 0.999061
 0.999061
 0.999061
 0.999061
 0.999061
 0.999061
 0.999061
 0.999061
 0.999061
 0.999061
 0.999061
 0.999061
 0.962674
 0.961728
 0.962536
 0.963112
 0.979588
 0.969706
 0.961728
 0.962608
 0.962608
  0.97214
 0.974245
 0.977078
-0.999327
-0.999317
-0.999356
-0.999356
-0.999356
-0.999317
-0.999502
  0.99973
-0.999786
-0.999722
-0.999722
-0.999882
-0.999882
-0.999915
 -0.99996
-0.999997
 0.999988
-0.999264
-0.999356
-0.999356
-0.999569
 -0.99004
 0.987451
 0.987605
 0.961728
 0.961728
 0.965398
 0.968751
 0.961728
 0.965398
 0.965398
 0.968678
 0.968678
 0.968678
 0.954904
 0.953497
 0.955803
 0.958038
 0.958038
 0.960653
 0.960335
 0.962608
 0.961728
 0.955803
 0.958038
 0.958038
 0.960653
 0.962608
 0.962608
 0.994776
 0.994284
 0.993459
-0.996539
 0.993762
-0.996539
-0.993353
-0.997848
 0.993639
-0.999103
 0.993859
-0.999261
-0.999618
-0.999261
-0.999809
-0.999261
 -0.99983
-0.999389
-0.999759
-0.999235
 -0.99976
-0.997606
-0.999882
-0.995607
 0.993346
-0.996042
 0.992827
-0.996042
-0.999059
-0.995269
-0.999103
 0.993859
-0.999261
-0.999691
-0.999261
-0.999766
 -0.99575
-0.999806
 -0.99981
-0.999303
-0.999722
-0.997606
-0.999835
 0.963534
 -0.96295
-0.980232
-0.962559
-0.962559
-0.962297
-0.962578
-0.969404
-0.975815
  0.97679
-0.962559
 0.999332
 0.999348
 0.999348
 0.999332
 0.999357
 0.999382
 0.999709
 0.999701
 0.999701
 0.999669
 0.999671
 0.999701
 0.999722
 0.999234
 0.999539
 0.999546
-0.987577
 -0.98653
-0.985964
 0.961728
 0.965398
 0.965398
 0.965398
 0.965398
 0.965398
 0.965398
 0.968678
 0.968678
-0.959066
-0.959066
-0.959066
-0.959066
-0.960234
-0.960234
 -0.96129
-0.960933
-0.962297
-0.959066
-0.959066
-0.960234
-0.960234
-0.960933
-0.962297
-0.962559
 0.991968
 0.991466
-0.989868
 0.993432
-0.990977
 0.994003
-0.990092
 -0.99489
-0.990888
 0.996983
  0.99973
 0.997305
 0.999792
 0.997915
 0.999829
 0.998627
 0.999875
 0.998123
 0.999783
-0.996984
 0.999763
 0.999392
 0.999902
-0.991613
-0.990934
 0.993432
-0.989477
-0.993252
 0.996931
-0.993252
 0.996983
  0.99973
  0.99647
 0.999407
-0.994338
 0.999547
 0.999894
 0.999059
 0.999815
 0.998336
 0.999763
 0.999404
