# vtk DataFile Version 3.0
File created by libpointmatcher
ASCII
DATASET POLYDATA
POINTS 222 float
  993.891   75.2062   56.5695
   994.06   64.7069   46.2646
  993.206   59.1967   25.1684
  997.859    59.832   30.8761
  999.385   59.9847   29.1536
   1000.3   60.1023   27.0423
  1000.52   60.1731   24.7486
  1000.02   60.1905   22.4971
  998.854   60.1526   20.5083
  997.128   60.0629   18.9768
  995.015   59.9305   18.0525
  992.722   59.7682   17.8259
  990.474   59.5919   18.3192
  988.489    59.419   19.4841
  986.964   59.2663   21.2067
  986.047   59.1487   23.3179
  985.826   59.0778   25.6117
  986.326   59.0605   27.8631
  987.496   59.0985   29.8519
  989.222   59.1882   31.3834
  991.335   59.3206   32.3077
  941.123   1041.53   19.1431
   919.22   1218.11   115.094
  952.463   1101.84   47.4985
  978.067   1043.66   42.7801
  1010.47   925.804   39.2591
  1004.75   984.692   74.9281
  926.333   1259.96   147.841
   936.87   1218.68     145.1
  947.773   1159.33   144.894
  958.547   1099.92   146.385
  949.408   1038.92   153.783
  936.554   917.626   155.265
  983.961   143.302  -23.5724
  1000.91   265.015  -30.0739
  1045.27   267.581  -1.69083
  1064.57   267.821   47.3167
  1051.42   265.643   98.2285
  1010.86   261.878     131.6
  987.733    444.41  -25.1747
  943.339   681.831  -26.5497
  1014.08   566.727  -28.1689
  1033.52    567.62  -6.07726
  1039.21   567.306   24.5181
   1042.6   566.813   55.4821
  1040.06   565.994   81.9918
  1029.46   564.635   106.394
  1011.83   562.869   126.302
  988.896   560.871   139.766
   962.91   558.834   145.467
  965.628   382.737  -29.4266
   1054.4   327.819   22.9283
  1047.03   325.441   99.8622
  980.481    319.64   138.934
  985.792   804.732  -4.69364
  1025.03   806.007   62.0144
  994.256   802.064   132.835
  911.732    1258.6    164.34
  917.286   1246.72   189.987
  921.218   1217.75   189.085
  922.444   1188.58   188.345
  916.062   1281.65    228.15
   921.73   1234.61   226.732
  916.303   1298.52   258.026
  919.669   1260.57   256.955
  917.277   1318.87   289.588
  917.567   1289.86   288.908
  1116.07   1272.84    159.85
   1110.6    1289.4   160.558
  1104.21   1305.63   161.317
  1061.49   1235.57   163.171
  1048.34   1279.58   162.485
  1004.66   1216.08   163.722
  988.926   1268.22   160.155
  947.028   1198.93   162.376
  928.592   1259.55    155.73
  1108.47   1287.36   158.535
  1061.12   1235.14   154.264
   1048.2   1279.28   158.391
  998.991   1233.13    153.14
  952.414   1178.09   147.554
  934.571   1239.03    153.25
  1698.86   745.119   7.89336
  1697.53   763.815   9.11332
     1696   782.432   6.89264
  1640.57     714.8   2.62534
  1636.91   767.346   7.45933
  1580.71   713.172   7.26909
  1576.55   767.443   5.81416
  1520.89   707.066   6.94142
  1515.85   770.262   2.03781
  1461.03   703.474    9.0505
  1455.08   775.954  0.554802
   1400.8   703.427   9.58398
   1345.6   630.408   2.12823
  1340.21   706.157   7.23091
  1287.55   596.067  -3.93087
  1279.51   711.727   6.70777
  1226.83   611.106   7.22705
  1218.42    720.78   4.28681
  1167.44   604.316   13.0952
  1157.35   731.026   3.26332
  1107.42   603.432   15.7399
  1095.63   746.943   -1.0815
  1042.29   607.547   17.3465
  1698.97   738.546    1.3181
  1696.24   775.945   2.83668
   1638.7   736.378  -1.43524
  1635.53   782.259   3.02819
  1578.13    739.91  -2.19883
  1521.76   685.424  -5.74192
  1517.15   748.807  -3.16877
  1460.09     702.9  -7.31385
  1455.07   775.712 0.0759163
  1398.91   716.376  -5.79807
  1343.69   644.425  -12.0988
  1337.25   735.759  -4.97469
  1282.22   660.453  -12.0905
  1275.26   761.419  -1.84356
  1220.37   683.434  -9.82815
  1167.46   582.032  -14.6327
   1158.5    709.15  -4.71754
  1105.57   602.294  -16.6619
  1095.61   746.463  -2.02976
  1038.54   633.137  -13.0531
  897.415   1038.27     21.71
  878.072   976.752   19.5026
  859.545   915.122   24.3435
  897.195   1258.01   140.228
  889.288    1215.5   132.668
  879.979   1154.79   127.183
  862.704   1093.51   121.346
  868.757   1033.52   132.714
   885.78   974.321   144.782
  910.055    915.75   152.647
  906.586   1258.12   164.086
  934.004   199.577  -13.9428
  908.045   196.704   26.7949
  911.017   195.767   75.0903
  941.784   197.123   112.496
  925.496   500.111   -29.111
  895.206   497.739  -22.5619
  878.614   495.947   1.64593
  876.717   495.067    32.687
  877.151   494.354   63.8245
  882.923   494.154   89.8458
  896.443   494.594   112.832
  916.387    495.63   130.533
  940.804    497.16   141.215
  939.641   380.699  -23.7251
  888.476   375.576   34.0486
  905.229   374.997   109.566
  904.499   859.087  -10.6605
  853.334   853.964   47.1133
  870.087   853.385    122.63
  911.093   1265.71   190.795
  910.621   1246.22   190.377
  910.967   1216.98   189.688
  914.018   1187.94    188.84
  911.017   1273.38   228.266
  913.769   1226.13   227.019
  911.968   1291.83   258.135
  917.062   1254.79   256.981
  911.776   1313.52   289.799
  708.171   1221.85   183.996
   707.95   1242.41    183.82
  710.943    1259.6   184.032
  714.901   1276.61   184.181
  768.617    1221.2   181.454
  774.748   1266.64   177.305
  827.562   1211.81   174.711
  834.674   1265.55    167.66
  886.703   1204.86    165.66
   708.72   1226.94   181.393
  714.014   1264.07    182.42
  767.914   1220.83    171.33
  774.576   1266.38    175.19
  829.353   1229.38   164.091
  882.755   1183.32   151.429
  891.956   1246.23   156.762
  195.749   639.298   97.0608
  194.328   658.024   96.8181
  192.775   676.586   94.1677
  256.509   626.031   88.8258
  252.996   671.823   87.5983
  316.259   627.971   82.8217
  311.934   682.207   78.6135
  375.714   632.339    74.891
  370.534   695.397   67.4997
  435.097   639.249   69.0156
  499.535   569.366    51.254
  494.132   649.564   61.5584
  559.432   571.804   48.3023
    552.8   662.702    51.535
  619.097   577.942   46.1369
  611.365   678.734   43.4348
  678.314   588.521   42.0438
  669.571   698.124   33.5396
  738.037   593.637   39.6981
   727.65   720.072   24.8782
  797.085   604.558   33.3901
  870.974   462.609   5.14598
  860.294   621.104   25.5107
  195.752   632.741   88.9013
  193.118   670.149   91.8191
  254.869   640.936   80.1629
  251.703   686.808   84.8184
  313.662   654.749   73.0601
  376.468   610.642   60.3287
  372.004   674.041   65.2736
  434.238   638.642   53.9582
  498.359   580.572   45.6972
  492.408   662.492   49.0226
  556.364   601.092    33.841
  550.043   692.369   42.7205
  614.311     627.6   28.5528
  679.811   550.986   20.0465
  671.823   660.914   24.5089
  737.934   571.388   10.1738
  729.136   698.428   22.5326
  795.383   603.356   3.57617
  868.651   484.757  -5.83575
VERTICES 222 444
1 0
1 1
1 2
1 3
1 4
1 5
1 6
1 7
1 8
1 9
1 10
1 11
1 12
1 13
1 14
1 15
1 16
1 17
1 18
1 19
1 20
1 21
1 22
1 23
1 24
1 25
1 26
1 27
1 28
1 29
1 30
1 31
1 32
1 33
1 34
1 35
1 36
1 37
1 38
1 39
1 40
1 41
1 42
1 43
1 44
1 45
1 46
1 47
1 48
1 49
1 50
1 51
1 52
1 53
1 54
1 55
1 56
1 57
1 58
1 59
1 60
1 61
1 62
1 63
1 64
1 65
1 66
1 67
1 68
1 69
1 70
1 71
1 72
1 73
1 74
1 75
1 76
1 77
1 78
1 79
1 80
1 81
1 82
1 83
1 84
1 85
1 86
1 87
1 88
1 89
1 90
1 91
1 92
1 93
1 94
1 95
1 96
1 97
1 98
1 99
1 100
1 101
1 102
1 103
1 104
1 105
1 106
1 107
1 108
1 109
1 110
1 111
1 112
1 113
1 114
1 115
1 116
1 117
1 118
1 119
1 120
1 121
1 122
1 123
1 124
1 125
1 126
1 127
1 128
1 129
1 130
1 131
1 132
1 133
1 134
1 135
1 136
1 137
1 138
1 139
1 140
1 141
1 142
1 143
1 144
1 145
1 146
1 147
1 148
1 149
1 150
1 151
1 152
1 153
1 154
1 155
1 156
1 157
1 158
1 159
1 160
1 161
1 162
1 163
1 164
1 165
1 166
1 167
1 168
1 169
1 170
1 171
1 172
1 173
1 174
1 175
1 176
1 177
1 178
1 179
1 180
1 181
1 182
1 183
1 184
1 185
1 186
1 187
1 188
1 189
1 190
1 191
1 192
1 193
1 194
1 195
1 196
1 197
1 198
1 199
1 200
1 201
1 202
1 203
1 204
1 205
1 206
1 207
1 208
1 209
1 210
1 211
1 212
1 213
1 214
1 215
1 216
1 217
1 218
1 219
1 220
1 221
POINT_DATA 222
SCALARS empty3 float
LOOKUP_TABLE default
  0.00561788
  0.00561788
 -0.00318279
  0.00561788
  0.00561788
  0.00561788
  0.00561788
  0.00561788
  0.00561788
 -0.00318279
 -0.00318279
 -0.00318279
 -0.00318279
 -0.00318279
 -0.00318279
 -0.00318279
 -0.00318279
 -0.00318279
 -0.00318279
 -0.00318279
 -0.00318279
 -0.00869765
-0.000309885
 -0.00893124
  -0.0147057
   0.0183117
  -0.0117627
-0.000309885
 -0.00464018
 -0.00464018
 0.000402349
-4.34934e-05
 -0.00627921
  0.00561788
  0.00020949
  -0.0041586
  -0.0041586
  -0.0041586
  0.00020949
 -0.00616945
 -0.00209741
 -0.00688152
  -0.0089816
  -0.0089816
  -0.0122785
  -0.0122785
   -0.011204
 -0.00894814
 -0.00212497
 -0.00102481
    0.002135
  -0.0041586
  -0.0041586
  0.00169322
  -0.0158524
   0.0225007
   0.0258978
-0.000309885
-0.000309885
  0.00157643
  0.00191822
-0.000309885
  0.00157643
  0.00157643
-0.000162881
-0.000162881
-0.000162881
  -0.0517676
  -0.0538918
  -0.0451229
  -0.0399629
  -0.0399629
  -0.0260064
  -0.0251602
 -0.00464018
-0.000309885
  -0.0451229
  -0.0399629
  -0.0399629
  -0.0260064
 -0.00464018
 -0.00464018
   0.0450627
   0.0467627
   0.0417143
  -0.0377411
   0.0434337
  -0.0377411
  -0.0385761
  -0.0389289
   0.0359961
    -0.03132
   0.0366055
   -0.032162
  -0.0264939
   -0.032162
   -0.016024
   -0.032162
  -0.0160564
  -0.0257447
  -0.0202403
  -0.0262619
  -0.0217869
  -0.0301658
  -0.0151391
   -0.043737
    0.042755
  -0.0399922
   0.0388658
  -0.0399922
     -0.0308
   -0.035303
    -0.03132
   0.0366055
   -0.032162
  -0.0236011
   -0.032162
  -0.0215867
  -0.0328296
  -0.0197622
  -0.0184757
  -0.0238252
  -0.0178674
  -0.0301658
  -0.0179397
  0.00522648
  -0.0211047
    0.027871
 -0.00670133
 -0.00670133
  -0.0148416
   -0.023468
  0.00134107
   0.0306826
  -0.0328858
 -0.00670133
 -0.00576183
 -0.00966794
 -0.00966794
 -0.00576183
 -0.00424364
  -0.0106985
  -0.0178975
  -0.0179058
  -0.0178124
  -0.0178689
   -0.015486
  -0.0143351
 -0.00320832
  -0.0045801
  -0.0164434
  -0.0128185
 -0.00355442
   0.0192823
   0.0175493
-0.000309885
  0.00157643
  0.00157643
  0.00157643
  0.00157643
  0.00157643
  0.00157643
-0.000162881
-0.000162881
  -0.0445593
  -0.0445593
  -0.0445593
  -0.0445593
  -0.0366817
  -0.0366817
  -0.0289754
  -0.0236495
  -0.0148416
  -0.0445593
  -0.0445593
  -0.0366817
  -0.0366817
  -0.0236495
  -0.0148416
 -0.00670133
  -0.0414832
  -0.0445773
   0.0348857
  -0.0434896
   0.0398038
  -0.0413391
   0.0291819
   0.0384054
   0.0263873
  -0.0254884
  -0.0231644
  -0.0254663
  -0.0203273
  -0.0248726
  -0.0180583
  -0.0205133
  -0.0151198
  -0.0154432
  -0.0178395
   0.0180608
   -0.021657
  -0.0224347
  -0.0131987
   0.0440785
   0.0370007
  -0.0434896
   0.0322204
   0.0367726
  -0.0387749
   0.0367726
  -0.0254884
  -0.0231644
   -0.022596
  -0.0264997
   0.0223015
  -0.0243113
  -0.0137129
  -0.0148323
  -0.0191569
   -0.017953
   -0.021657
  -0.0156822
SCALARS empty4 float
LOOKUP_TABLE default
  -0.0389727
  -0.0389727
   0.0459257
  -0.0389727
  -0.0389727
  -0.0389727
  -0.0389727
  -0.0389727
  -0.0389727
   0.0459257
   0.0459257
   0.0459257
   0.0459257
   0.0459257
   0.0459257
   0.0459257
   0.0459257
   0.0459257
   0.0459257
   0.0459257
   0.0459257
   -0.267899
   -0.271384
   -0.268382
   -0.266071
   -0.197517
   -0.241348
   -0.271384
   -0.268234
   -0.268234
    -0.23175
   -0.222837
   -0.210126
  -0.0389727
  -0.0396621
  -0.0383634
  -0.0383634
  -0.0383634
  -0.0396621
  -0.0336923
  -0.0204225
  -0.0222498
  -0.0245237
  -0.0245237
  -0.0120061
  -0.0120061
 -0.00955462
 -0.00156297
 -0.00166397
 -0.00198771
  -0.0410162
  -0.0383634
  -0.0383634
  -0.0320102
      0.1372
   -0.153634
   -0.152129
   -0.271384
   -0.271384
   -0.258146
   -0.245388
   -0.271384
   -0.258146
   -0.258146
    -0.24568
    -0.24568
    -0.24568
   -0.289755
   -0.293939
   -0.287913
   -0.281223
   -0.281223
   -0.273907
   -0.275089
   -0.268234
   -0.271384
   -0.287913
   -0.281223
   -0.281223
   -0.273907
   -0.268234
   -0.268234
  -0.0889145
  -0.0932966
   -0.103616
   0.0713753
   -0.100034
   0.0713753
    0.105768
   0.0500828
   -0.104012
    0.025826
   -0.101732
   0.0184164
  0.00529554
   0.0184164
  -0.0139533
   0.0184164
  -0.0118588
   0.0209837
  -0.0113359
   0.0263161
 -0.00557916
   0.0595428
  0.00034567
   0.0801048
   -0.104252
   0.0766956
    -0.11038
   0.0766956
   0.0278732
   0.0878242
    0.025826
   -0.101732
   0.0184164
  0.00519399
   0.0184164
-0.000883531
   0.0833612
 -0.00317787
  -0.0091317
   0.0260542
  -0.0181436
   0.0595428
 -0.00580077
   -0.264912
    0.266232
    0.193201
    0.268368
    0.268368
    0.268976
    0.267367
    0.242826
    0.213767
    -0.20899
    0.268368
   0.0388115
   0.0374873
   0.0374873
   0.0388115
   0.0383096
   0.0361839
   0.0188584
   0.0193197
   0.0194337
   0.0212013
   0.0231323
   0.0225053
   0.0260847
   0.0415671
   0.0282081
   0.0299643
    0.154406
    0.159748
    0.163343
   -0.271384
   -0.258146
   -0.258146
   -0.258146
   -0.258146
   -0.258146
   -0.258146
    -0.24568
    -0.24568
    0.277051
    0.277051
    0.277051
    0.277051
    0.274167
    0.274167
    0.271398
    0.273153
    0.268976
    0.277051
    0.277051
    0.274167
    0.274167
    0.273153
    0.268976
    0.268368
   -0.116771
   -0.119786
    0.134925
   -0.103107
    0.125268
  -0.0985078
    0.134642
   0.0906391
     0.12937
  -0.0705796
   0.0015657
   -0.066068
  0.00322426
  -0.0568228
  0.00647137
  -0.0454624
  0.00714444
  -0.0565296
   0.0133456
   0.0727411
  0.00397614
   0.0293509
 -0.00176679
    0.118773
    0.126438
   -0.103107
    0.138347
    0.107268
  -0.0652611
    0.107268
  -0.0705796
   0.0015657
  -0.0781191
  -0.0192022
    0.101179
  -0.0149376
  0.00749508
  -0.0380071
  0.00201043
   -0.052052
  0.00397614
   0.0334571
SCALARS empty5 float
LOOKUP_TABLE default
-0.999224
-0.999224
  0.99894
-0.999224
-0.999224
-0.999224
-0.999224
-0.999224
-0.999224
  0.99894
  0.99894
  0.99894
  0.99894
  0.99894
  0.99894
  0.99894
  0.99894
  0.99894
  0.99894
  0.99894
  0.99894
 0.963408
 0.962471
 0.963271
 0.963841
 0.980128
 0.970367
 0.962471
 0.963343
 0.963343
 0.972775
 0.974856
 0.977654
-0.999224
-0.999213
-0.999255
-0.999255
-0.999255
-0.999213
-0.999413
 0.999789
-0.999729
-0.999659
-0.999659
-0.999853
-0.999853
-0.999892
-0.999959
-0.999996
 0.999997
-0.999156
-0.999255
-0.999255
-0.999486
-0.990417
 0.987872
 0.988021
 0.962471
 0.962471
 0.966105
 0.969423
 0.962471
 0.966105
 0.966105
 0.969351
 0.969351
 0.969351
   0.9557
 0.954304
 0.956593
  0.95881
  0.95881
 0.961404
  0.96109
 0.963343
 0.962471
 0.956593
  0.95881
  0.95881
 0.961404
 0.963343
 0.963343
 0.995019
  0.99454
 0.993742
-0.996735
 0.994036
-0.996735
-0.993642
-0.997986
 0.993924
-0.999176
 0.994138
-0.999313
-0.999635
-0.999313
-0.999774
-0.999313
-0.999801
-0.999448
-0.999731
-0.999309
-0.999747
 -0.99777
-0.999885
-0.995826
 0.993631
-0.996252
 0.993129
-0.996252
-0.999137
 -0.99551
-0.999176
 0.994138
-0.999313
-0.999708
-0.999313
-0.999767
-0.995978
  -0.9998
-0.999788
-0.999377
-0.999676
 -0.99777
-0.999822
 0.964258
-0.963678
-0.980763
-0.963293
-0.963293
-0.963033
-0.963309
-0.970069
-0.976403
 0.977365
-0.963293
  0.99923
  0.99925
  0.99925
  0.99923
 0.999257
 0.999288
 0.999662
 0.999653
 0.999652
 0.999616
 0.999612
 0.999644
 0.999655
 0.999125
 0.999467
 0.999469
-0.988001
 -0.98697
-0.986413
 0.962471
 0.966105
 0.966105
 0.966105
 0.966105
 0.966105
 0.966105
 0.969351
 0.969351
-0.959821
-0.959821
-0.959821
-0.959821
-0.960982
-0.960982
-0.962031
 -0.96168
-0.963033
-0.959821
-0.959821
-0.960982
-0.960982
 -0.96168
-0.963033
-0.963293
 0.992292
 0.991798
-0.990241
 0.993719
-0.991324
 0.994277
-0.990465
-0.995143
-0.991245
  0.99718
  0.99973
  0.99749
 0.999788
 0.998074
 0.999816
 0.998755
  0.99986
 0.998281
 0.999752
-0.997187
 0.999758
 0.999317
 0.999911
-0.991943
-0.991284
 0.993719
 -0.98986
 -0.99355
 0.997115
 -0.99355
  0.99718
  0.99973
 0.996688
 0.999464
-0.994618
 0.999593
 0.999878
 0.999167
 0.999814
 0.998483
 0.999758
 0.999317
